/*--------------------------------*- C++ -*----------------------------------*\
| =========                 |                                                 |
| \\      /  F ield         | OpenFOAM: The Open Source CFD Toolbox           |
|  \\    /   O peration     | Version:  v1806                                 |
|   \\  /    A nd           | Web:      www.OpenFOAM.com                      |
|    \\/     M anipulation  |                                                 |
\*---------------------------------------------------------------------------*/
FoamFile
{
    version     2.0;
    format      ascii;
    class       volScalarField;
    location    "5";
    object      p;
}
// * * * * * * * * * * * * * * * * * * * * * * * * * * * * * * * * * * * * * //

dimensions      [0 2 -2 0 0 0 0];


internalField   nonuniform List<scalar> 
64000
(
-0.000421166
4.0743e-05
-0.0057906
-0.0170552
-0.0326214
-0.0516856
-0.0740547
-0.099683
-0.129038
-0.162182
-0.198702
-0.237675
-0.27762
-0.316419
-0.351865
-0.379286
-0.395475
-0.397169
-0.38172
-0.346614
-0.2908
-0.214772
-0.12093
-0.0138819
0.0994424
0.209943
0.307217
0.381112
0.423921
0.432791
0.410418
0.365995
0.312341
0.260981
0.219414
0.189809
0.170712
0.159314
0.153462
0.152899
-5.86934e-05
0.0014206
-0.00394754
-0.0147542
-0.0296741
-0.047594
-0.0684191
-0.0926634
-0.120513
-0.151892
-0.186193
-0.222215
-0.258239
-0.291873
-0.320378
-0.340502
-0.349112
-0.343424
-0.321356
-0.281675
-0.224374
-0.150819
-0.0639339
0.0318025
0.130379
0.224384
0.305871
0.367351
0.403382
0.412082
0.39585
0.360514
0.316003
0.271134
0.232444
0.202899
0.182249
0.168397
0.159461
0.156113
0.00452151
0.00691872
0.0014182
-0.0099267
-0.0251401
-0.0433974
-0.064528
-0.0891205
-0.117714
-0.150406
-0.186801
-0.225895
-0.26639
-0.306327
-0.343364
-0.374901
-0.39826
-0.41111
-0.411896
-0.399795
-0.374602
-0.336826
-0.287705
-0.229131
-0.163747
-0.0947021
-0.0257222
0.0391838
0.0960846
0.14159
0.173447
0.191196
0.196679
0.193021
0.184539
0.174776
0.165547
0.157043
0.149234
0.14485
0.0124097
0.0153986
0.00877248
-0.00450211
-0.0220378
-0.0426361
-0.066736
-0.0955809
-0.130258
-0.171238
-0.21838
-0.271064
-0.327958
-0.387145
-0.446414
-0.503359
-0.555244
-0.599735
-0.634881
-0.659001
-0.670614
-0.66851
-0.65192
-0.620514
-0.573873
-0.512449
-0.437898
-0.353177
-0.262646
-0.171988
-0.0877433
-0.0150409
0.0425823
0.0839291
0.110418
0.125169
0.131295
0.130877
0.125843
0.120742
0.0222182
0.0255151
0.0164855
-0.00111628
-0.0238241
-0.0506583
-0.0828811
-0.122507
-0.170969
-0.228778
-0.295705
-0.370762
-0.452088
-0.537258
-0.623483
-0.707657
-0.786323
-0.856594
-0.915819
-0.961574
-0.991546
-1.00378
-0.997358
-0.972146
-0.925566
-0.857834
-0.770338
-0.665988
-0.549281
-0.426427
-0.306862
-0.1961
-0.100275
-0.0237418
0.0319747
0.0682247
0.0881572
0.0951978
0.0928599
0.0866241
0.0314047
0.0350031
0.021519
-0.00347738
-0.0354526
-0.0736916
-0.120175
-0.177214
-0.245963
-0.326352
-0.417422
-0.517076
-0.622557
-0.730532
-0.837343
-0.939228
-1.03224
-1.11348
-1.17995
-1.22958
-1.26047
-1.27117
-1.26063
-1.22828
-1.17382
-1.09779
-1.00155
-0.887612
-0.759668
-0.622761
-0.483917
-0.350091
-0.228386
-0.125331
-0.0456568
0.00904847
0.0407219
0.0536746
0.0536325
0.0455505
0.0363664
0.039517
0.0194903
-0.0164119
-0.0620825
-0.116688
-0.182336
-0.260864
-0.352428
-0.455917
-0.56927
-0.689112
-0.811955
-0.933567
-1.04954
-1.15642
-1.25029
-1.32825
-1.38832
-1.42944
-1.45097
-1.45257
-1.43407
-1.39548
-1.33708
-1.25939
-1.16329
-1.05029
-0.922629
-0.783408
-0.637169
-0.490328
-0.350843
-0.226769
-0.126025
-0.0538939
-0.0108638
0.00753126
0.00896015
-0.000408495
0.0313063
0.0341258
0.0055667
-0.04445
-0.107388
-0.181563
-0.268428
-0.368692
-0.481204
-0.603598
-0.733629
-0.865802
-0.996447
-1.12156
-1.23664
-1.33804
-1.42309
-1.49025
-1.53897
-1.56936
-1.58182
-1.57672
-1.55435
-1.51486
-1.45828
-1.38469
-1.29423
-1.18732
-1.0648
-0.928193
-0.780325
-0.626283
-0.474002
-0.332809
-0.213185
-0.123945
-0.0687907
-0.044277
-0.0411554
-0.0517638
0.01177
0.0141179
-0.0243106
-0.0904422
-0.172398
-0.266763
-0.373702
-0.49263
-0.621362
-0.756885
-0.895063
-1.03164
-1.1628
-1.28369
-1.39073
-1.48133
-1.55433
-1.60971
-1.64814
-1.67053
-1.67767
-1.67012
-1.64811
-1.61165
-1.56043
-1.49403
-1.41185
-1.31332
-1.19804
-1.06624
-0.919443
-0.761473
-0.599729
-0.444404
-0.308028
-0.202512
-0.134762
-0.10317
-0.0977058
-0.109276
-0.0258964
-0.0238691
-0.0723122
-0.154802
-0.255343
-0.368054
-0.491556
-0.624209
-0.763262
-0.905019
-1.04545
-1.18055
-1.30611
-1.41825
-1.5142
-1.59282
-1.65439
-1.69999
-1.73101
-1.74871
-1.75397
-1.74723
-1.72854
-1.69759
-1.65373
-1.59603
-1.52329
-1.43412
-1.32716
-1.20152
-1.05753
-0.897905
-0.72884
-0.561434
-0.409847
-0.28896
-0.208799
-0.16966
-0.161383
-0.173439
-0.0831024
-0.0809334
-0.138238
-0.235523
-0.352335
-0.479894
-0.615318
-0.756347
-0.900038
-1.04276
-1.1808
-1.31024
-1.4272
-1.52873
-1.61331
-1.68104
-1.73331
-1.77191
-1.79854
-1.81449
-1.82048
-1.81668
-1.80285
-1.77838
-1.74233
-1.69346
-1.63015
-1.55052
-1.45252
-1.33435
-1.1951
-1.03606
-0.86239
-0.6847
-0.518849
-0.382808
-0.290239
-0.243495
-0.23232
-0.244427
-0.158776
-0.15579
-0.21972
-0.328831
-0.45841
-0.596643
-0.739322
-0.884034
-1.02787
-1.16774
-1.30025
-1.42176
-1.52904
-1.62006
-1.69449
-1.75335
-1.79894
-1.83329
-1.8581
-1.87442
-1.88261
-1.88251
-1.87363
-1.85522
-1.82625
-1.78536
-1.73083
-1.66053
-1.57203
-1.46279
-1.33076
-1.17566
-1.00089
-0.815647
-0.636612
-0.485065
-0.379245
-0.324471
-0.310478
-0.322424
-0.249675
-0.245181
-0.312887
-0.430064
-0.568456
-0.713307
-0.859202
-1.00399
-1.1448
-1.27935
-1.40463
-1.51742
-1.61518
-1.69681
-1.7629
-1.81533
-1.85662
-1.88891
-1.91357
-1.93121
-1.94178
-1.94491
-1.94006
-1.92651
-1.90334
-1.8693
-1.82273
-1.76146
-1.68288
-1.58396
-1.46174
-1.31433
-1.14307
-0.95536
-0.765277
-0.597903
-0.477267
-0.413113
-0.396096
-0.407998
-0.351187
-0.344655
-0.413144
-0.534491
-0.677882
-0.825943
-0.972332
-1.11429
-1.25009
-1.37801
-1.49543
-1.59965
-1.68883
-1.76262
-1.82234
-1.87037
-1.90919
-1.94073
-1.96584
-1.98467
-1.99693
-2.00221
-2.00008
-1.99003
-1.97135
-1.94301
-1.90351
-1.85079
-1.78222
-1.69459
-1.58433
-1.4482
-1.28521
-1.10024
-0.905843
-0.724262
-0.586659
-0.510748
-0.489791
-0.502179
-0.458219
-0.449339
-0.515958
-0.637772
-0.782847
-0.931405
-1.07621
-1.21382
-1.34365
-1.46449
-1.57417
-1.67055
-1.75238
-1.81993
-1.87499
-1.92011
-1.95755
-1.98877
-2.01414
-2.03348
-2.04645
-2.05275
-2.05218
-2.04445
-2.0291
-2.00533
-1.97187
-1.92688
-1.86787
-1.7917
-1.69459
-1.57255
-1.42269
-1.24626
-1.05361
-0.863974
-0.710032
-0.619196
-0.592241
-0.606162
-0.565838
-0.554568
-0.617252
-0.736419
-0.880443
-1.02749
-1.16945
-1.30208
-1.42568
-1.5396
-1.64212
-1.73163
-1.8074
-1.87014
-1.92184
-1.96498
-2.00148
-2.03227
-2.05737
-2.07649
-2.08935
-2.09588
-2.09605
-2.08979
-2.07684
-2.05662
-2.0281
-1.98972
-1.93928
-1.87388
-1.78983
-1.68296
-1.54909
-1.38664
-1.20173
-1.01209
-0.846272
-0.739948
-0.703945
-0.720754
-0.669716
-0.656316
-0.713645
-0.827764
-0.968619
-1.11283
-1.25125
-1.37884
-1.49647
-1.60398
-1.70016
-1.78387
-1.85478
-1.91385
-1.96311
-2.00479
-2.0404
-2.07047
-2.09485
-2.11325
-2.12557
-2.13189
-2.13235
-2.12702
-2.11579
-2.09825
-2.07363
-2.04066
-1.99749
-1.94153
-1.86958
-1.77751
-1.66074
-1.51574
-1.34449
-1.16075
-0.99044
-0.871186
-0.824727
-0.845863
-0.766445
-0.751374
-0.802508
-0.909857
-1.04601
-1.18683
-1.32114
-1.44398
-1.55625
-1.6581
-1.74887
-1.82783
-1.89493
-1.95125
-1.99869
-2.03918
-2.07386
-2.10301
-2.12643
-2.14393
-2.15556
-2.16152
-2.16207
-2.15734
-2.14733
-2.13177
-2.11013
-2.08142
-2.04418
-1.99631
-1.93496
-1.85642
-1.75624
-1.62987
-1.476
-1.30318
-1.13547
-1.00754
-0.951878
-0.978474
-0.853541
-0.837353
-0.881983
-0.981421
-1.11166
-1.24841
-1.37879
-1.49749
-1.60516
-1.70225
-1.78857
-1.86374
-1.92795
-1.98225
-2.02836
-2.06786
-2.10164
-2.12984
-2.15229
-2.16892
-2.17991
-2.18553
-2.18608
-2.18174
-2.17257
-2.15844
-2.13897
-2.11351
-2.08097
-2.0397
-1.98737
-1.92079
-1.83583
-1.72763
-1.59269
-1.43475
-1.27336
-1.14217
-1.07978
-1.11121
-0.929403
-0.912666
-0.950888
-1.04175
-1.16521
-1.29739
-1.42415
-1.53937
-1.6433
-1.73658
-1.81937
-1.89166
-1.95378
-2.0067
-2.05189
-2.09065
-2.12367
-2.15106
-2.17271
-2.18866
-2.19915
-2.2045
-2.20503
-2.20093
-2.1923
-2.17912
-2.16118
-2.13806
-2.10906
-2.07299
-2.02809
-1.97175
-1.90028
-1.80887
-1.69261
-1.55122
-1.39848
-1.26783
-1.20046
-1.23513
-0.993213
-0.976452
-1.00862
-1.09063
-1.20665
-1.33389
-1.45725
-1.56967
-1.67073
-1.76112
-1.8413
-1.91155
-1.97229
-2.02441
-2.06911
-2.10745
-2.13999
-2.16682
-2.18794
-2.20346
-2.21363
-2.21883
-2.21932
-2.21534
-2.20702
-2.1944
-2.17742
-2.15588
-2.12939
-2.09723
-2.05819
-2.0103
-1.95039
-1.87382
-1.77479
-1.64985
-1.5073
-1.37794
-1.3063
-1.34121
-1.0448
-1.02847
-1.05505
-1.1282
-1.2363
-1.35819
-1.47829
-1.58847
-1.68748
-1.77587
-1.8543
-1.92328
-1.98332
-2.03518
-2.07985
-2.11817
-2.15058
-2.17723
-2.19815
-2.2135
-2.22358
-2.22871
-2.22918
-2.22523
-2.21701
-2.20463
-2.18813
-2.16751
-2.14262
-2.11317
-2.07849
-2.03722
-1.98676
-1.92268
-1.83856
-1.7285
-1.59573
-1.46647
-1.39096
-1.42017
-1.08454
-1.069
-1.0905
-1.15495
-1.25472
-1.37087
-1.48758
-1.59591
-1.69357
-1.78077
-1.85827
-1.92671
-1.98666
-2.03882
-2.08394
-2.12268
-2.15541
-2.18227
-2.20336
-2.21885
-2.22903
-2.23422
-2.23469
-2.23069
-2.2224
-2.20998
-2.19356
-2.17327
-2.14921
-2.12138
-2.08962
-2.05313
-2.00984
-1.95553
-1.88334
-1.78545
-1.66095
-1.5314
-1.45025
-1.4672
-1.11322
-1.0987
-1.11564
-1.17162
-1.26266
-1.37255
-1.48556
-1.59218
-1.68901
-1.77575
-1.85306
-1.92165
-1.98214
-2.03512
-2.08118
-2.12083
-2.15434
-2.18186
-2.20349
-2.21942
-2.22992
-2.2353
-2.23582
-2.23173
-2.22323
-2.21054
-2.19384
-2.17339
-2.14943
-2.12226
-2.09204
-2.05849
-2.01998
-1.97239
-1.90854
-1.8193
-1.70059
-1.5698
-1.48158
-1.48159
-1.13211
-1.11856
-1.13142
-1.17918
-1.26106
-1.36392
-1.47274
-1.57753
-1.67384
-1.76069
-1.8385
-1.90792
-1.96953
-2.02388
-2.0714
-2.11244
-2.14722
-2.17584
-2.1984
-2.21508
-2.22613
-2.23184
-2.23247
-2.22827
-2.21947
-2.2063
-2.18904
-2.16798
-2.14352
-2.11609
-2.08616
-2.05376
-2.01755
-1.97346
-1.91398
-1.82935
-1.71337
-1.57998
-1.48371
-1.46556
-1.14234
-1.12982
-1.13899
-1.17875
-1.25104
-1.34592
-1.44979
-1.55231
-1.64813
-1.73551
-1.8144
-1.88528
-1.94864
-2.00491
-2.05441
-2.09736
-2.13389
-2.16405
-2.18793
-2.20568
-2.21753
-2.22373
-2.22456
-2.22026
-2.21108
-2.19729
-2.1792
-2.15718
-2.13166
-2.1032
-2.07238
-2.03945
-2.0032
-1.95943
-1.90043
-1.81631
-1.69965
-1.56151
-1.45564
-1.42135
-1.14525
-1.13381
-1.13965
-1.17161
-1.23386
-1.31973
-1.41755
-1.51697
-1.61201
-1.70009
-1.78054
-1.85349
-1.91922
-1.97802
-2.03008
-2.07548
-2.11426
-2.14642
-2.17201
-2.19115
-2.20403
-2.21091
-2.21204
-2.20768
-2.1981
-2.18358
-2.16447
-2.14116
-2.11414
-2.08396
-2.05126
-2.01633
-1.97796
-1.93179
-1.87
-1.78258
-1.66151
-1.51589
-1.39897
-1.34779
-1.14234
-1.13198
-1.13476
-1.15906
-1.21081
-1.28652
-1.37692
-1.47205
-1.5657
-1.65439
-1.73672
-1.81228
-1.88103
-1.94303
-1.99827
-2.04671
-2.08828
-2.12293
-2.15064
-2.17152
-2.18572
-2.19348
-2.19505
-2.1907
-2.18071
-2.1654
-2.14511
-2.12028
-2.09136
-2.0589
-2.0235
-1.98539
-1.94332
-1.89282
-1.82592
-1.73248
-1.60356
-1.44577
-1.31373
-1.23773
-1.13503
-1.12573
-1.12563
-1.14239
-1.18318
-1.24747
-1.32865
-1.41825
-1.50956
-1.59849
-1.6828
-1.76142
-1.83382
-1.89971
-1.95884
-2.01099
-2.05597
-2.09365
-2.12396
-2.14696
-2.1628
-2.17168
-2.17387
-2.16964
-2.15929
-2.14316
-2.12161
-2.09505
-2.06393
-2.02875
-1.99001
-1.94787
-1.90105
-1.8451
-1.77182
-1.67109
-1.53195
-1.35657
-1.19948
-1.07942
-1.1247
-1.11639
-1.1135
-1.12275
-1.15211
-1.20375
-1.27405
-1.35644
-1.44415
-1.53264
-1.61882
-1.70079
-1.7774
-1.84789
-1.91166
-1.96826
-2.01734
-2.05867
-2.09212
-2.11771
-2.13557
-2.14588
-2.14893
-2.14499
-2.13439
-2.11748
-2.09462
-2.06621
-2.03266
-1.99441
-1.95186
-1.90509
-1.85286
-1.79083
-1.71084
-1.60262
-1.45207
-1.25376
-1.05779
-0.863669
-1.11262
-1.10524
-1.0995
-1.10113
-1.11854
-1.15641
-1.21413
-1.28738
-1.37019
-1.45736
-1.54505
-1.6305
-1.71177
-1.78749
-1.85664
-1.91845
-1.97237
-2.01804
-2.05525
-2.08398
-2.10432
-2.11647
-2.1207
-2.11731
-2.10666
-2.08908
-2.06495
-2.03465
-1.99853
-1.95696
-1.91025
-1.8584
-1.80029
-1.7317
-1.6449
-1.52917
-1.36605
-1.13833
-0.886999
-0.581438
-1.09992
-1.09362
-1.0846
-1.07823
-1.08309
-1.1061
-1.14974
-1.21208
-1.28849
-1.37334
-1.46208
-1.55098
-1.63722
-1.7187
-1.79387
-1.8616
-1.92108
-1.97178
-2.01341
-2.04587
-2.06925
-2.08372
-2.08957
-2.08711
-2.07671
-2.0587
-2.03346
-2.00132
-1.9626
-1.91756
-1.8664
-1.80907
-1.74452
-1.66876
-1.5746
-1.45038
-1.2713
-1.00439
-0.680997
-0.221569
-1.08831
-1.08267
-1.06983
-1.05459
-1.04601
-1.05314
-1.08143
-1.13144
-1.1999
-1.28146
-1.37076
-1.463
-1.55439
-1.642
-1.7237
-1.79791
-1.86355
-1.9199
-1.96657
-2.00338
-2.03037
-2.04773
-2.05572
-2.05468
-2.04496
-2.02691
-2.00086
-1.9671
-1.92588
-1.87733
-1.82152
-1.75824
-1.68643
-1.60234
-1.49923
-1.36341
-1.1613
-0.841806
-0.430048
0.239069
-1.07989
-1.0744
-1.05617
-1.03067
-1.00707
-0.997157
-1.009
-1.04554
-1.10516
-1.18253
-1.27165
-1.36704
-1.46372
-1.55784
-1.64648
-1.7276
-1.79984
-1.86233
-1.91454
-1.95625
-1.98743
-2.00826
-2.01899
-2.01996
-2.0115
-1.99395
-1.96759
-1.93262
-1.88918
-1.83722
-1.77659
-1.70682
-1.62654
-1.53202
-1.41647
-1.26266
-1.02635
-0.637447
-0.117117
0.831675
-1.07903
-1.07258
-1.04567
-1.00677
-0.966426
-0.937363
-0.931828
-0.954366
-1.00412
-1.07667
-1.16526
-1.26316
-1.36451
-1.46542
-1.56138
-1.6499
-1.7293
-1.79846
-1.85676
-1.90386
-1.93977
-1.96465
-1.97877
-1.98242
-1.97594
-1.95958
-1.93359
-1.89803
-1.85287
-1.79779
-1.73226
-1.65516
-1.56469
-1.45605
-1.32169
-1.13839
-0.849199
-0.365851
0.288948
1.60026
-1.09397
-1.08373
-1.04197
-0.984015
-0.922449
-0.872133
-0.847402
-0.854734
-0.894442
-0.961921
-1.04984
-1.15044
-1.25686
-1.36363
-1.46635
-1.56251
-1.64967
-1.72611
-1.79118
-1.84447
-1.88598
-1.9157
-1.93395
-1.94102
-1.93732
-1.923
-1.89823
-1.86286
-1.8167
-1.75891
-1.68846
-1.60305
-1.49938
-1.37027
-1.20562
-0.97203
-0.593182
0.0434246
0.903433
2.7064
-1.1443
-1.1277
-1.05771
-0.968988
-0.878052
-0.802974
-0.753056
-0.742891
-0.771561
-0.833728
-0.921116
-1.02478
-1.13675
-1.25043
-1.36095
-1.4648
-1.55949
-1.64329
-1.71538
-1.77532
-1.82356
-1.85916
-1.88259
-1.89406
-1.89411
-1.88271
-1.86014
-1.82581
-1.77953
-1.71955
-1.64423
-1.54891
-1.42798
-1.26799
-1.04933
-0.725992
-0.181012
0.763791
2.06121
4.70485
-1.31165
-1.22674
-1.08989
-0.954237
-0.821294
-0.708076
-0.636907
-0.610474
-0.628793
-0.686885
-0.77529
-0.883555
-1.0025
-1.12452
-1.24407
-1.3569
-1.46042
-1.55266
-1.6328
-1.70009
-1.75467
-1.79608
-1.82498
-1.84121
-1.84562
-1.83767
-1.81811
-1.78563
-1.74045
-1.6789
-1.59912
-1.49212
-1.34889
-1.14276
-0.837284
-0.332669
0.530805
2.10039
4.37611
8.73714
-1.44277
-1.51578
-1.27116
-1.03039
-0.821604
-0.660283
-0.55118
-0.501381
-0.508126
-0.560846
-0.648935
-0.760579
-0.885281
-1.01425
-1.14126
-1.26171
-1.37288
-1.47225
-1.55916
-1.63249
-1.69281
-1.73929
-1.77316
-1.79345
-1.80196
-1.79694
-1.78059
-1.74953
-1.70601
-1.64289
-1.56056
-1.44143
-1.27434
-1.00486
-0.569866
0.226252
1.65244
4.34321
8.4218
15.6176
-3.39836
-1.74041
-1.15861
-0.908997
-0.712536
-0.550995
-0.446031
-0.404626
-0.421591
-0.484169
-0.578934
-0.695672
-0.825276
-0.959117
-1.0912
-1.21665
-1.33291
-1.43683
-1.52782
-1.60445
-1.668
-1.71704
-1.75368
-1.77578
-1.78661
-1.78254
-1.76821
-1.73696
-1.69528
-1.63017
-1.54915
-1.42191
-1.24458
-0.920893
-0.356136
0.80604
2.98793
7.21082
13.8776
23.7544
-0.00181457
-0.000620996
-0.00689991
-0.0188795
-0.0350574
-0.0545136
-0.0770239
-0.102908
-0.132544
-0.166027
-0.203078
-0.243029
-0.284827
-0.326533
-0.365682
-0.398968
-0.422566
-0.432027
-0.423312
-0.394025
-0.343073
-0.271068
-0.180588
-0.0763049
0.0349703
0.144509
0.242369
0.318813
0.36622
0.381419
0.36706
0.330113
0.283242
0.237182
0.199882
0.1741
0.158564
0.150406
0.147504
0.150081
-0.00290357
-0.000917842
-0.00687797
-0.0181804
-0.0332305
-0.051184
-0.0719668
-0.0958884
-0.123205
-0.153829
-0.187245
-0.22251
-0.258394
-0.293283
-0.325246
-0.351907
-0.370508
-0.378154
-0.372238
-0.350895
-0.313344
-0.260004
-0.19266
-0.114586
-0.0306429
0.0534883
0.131596
0.197409
0.245735
0.27383
0.282174
0.273859
0.254352
0.230008
0.206005
0.185879
0.17102
0.160996
0.155015
0.15472
0.000679608
0.00301423
-0.0035079
-0.0154106
-0.0306639
-0.0484386
-0.0688003
-0.0922866
-0.119318
-0.150068
-0.18463
-0.223113
-0.265396
-0.310709
-0.357099
-0.401664
-0.441495
-0.47409
-0.497344
-0.50968
-0.510029
-0.497779
-0.472658
-0.434816
-0.385008
-0.324435
-0.255179
-0.180306
-0.103986
-0.0311514
0.0331632
0.0846117
0.121019
0.142534
0.151688
0.15329
0.15111
0.147391
0.143364
0.142456
0.00789469
0.00972189
0.00154233
-0.0122895
-0.0292592
-0.0486228
-0.0711019
-0.0980001
-0.130518
-0.169655
-0.216293
-0.270908
-0.33335
-0.402335
-0.475398
-0.549205
-0.620564
-0.686561
-0.744582
-0.792152
-0.826862
-0.846395
-0.848218
-0.829863
-0.789928
-0.728084
-0.645588
-0.54561
-0.433606
-0.317077
-0.204382
-0.103891
-0.0217979
0.038946
0.0791775
0.102931
0.115099
0.119337
0.118433
0.116762
0.0174797
0.0179852
0.00695092
-0.0109017
-0.0322237
-0.0569374
-0.0869734
-0.12458
-0.171527
-0.229057
-0.297805
-0.377597
-0.467041
-0.563605
-0.66373
-0.763285
-0.858502
-0.945762
-1.02211
-1.08471
-1.13022
-1.15609
-1.15927
-1.1359
-1.08636
-1.01133
-0.912513
-0.793647
-0.660616
-0.521315
-0.383032
-0.255178
-0.144946
-0.0571817
0.00647449
0.0480054
0.0719266
0.0828082
0.0846
0.0811929
0.0270316
0.0258864
0.00975646
-0.0149525
-0.0446403
-0.0801463
-0.124507
-0.180262
-0.248859
-0.33073
-0.425234
-0.530609
-0.644062
-0.761835
-0.879649
-0.992776
-1.09681
-1.18732
-1.26216
-1.3199
-1.35659
-1.37071
-1.36114
-1.32679
-1.2677
-1.18494
-1.08047
-0.957388
-0.819922
-0.673672
-0.527507
-0.387793
-0.260197
-0.151733
-0.0676403
-0.00966945
0.0247772
0.0409752
0.0445113
0.0395858
0.0326706
0.0287873
0.00559041
-0.0296065
-0.0722327
-0.123897
-0.187877
-0.266062
-0.35862
-0.46434
-0.58098
-0.705519
-0.834475
-0.962819
-1.08646
-1.20049
-1.29999
-1.38194
-1.44424
-1.48591
-1.5065
-1.50598
-1.48461
-1.4427
-1.38069
-1.29946
-1.20025
-1.08476
-0.955131
-0.813986
-0.665286
-0.519002
-0.378596
-0.252334
-0.148548
-0.0732456
-0.0272422
-0.00553597
-0.000499466
-0.00695996
0.0284833
0.0218265
-0.0107547
-0.0599139
-0.119324
-0.190493
-0.276048
-0.376452
-0.490185
-0.614398
-0.746065
-0.88131
-1.01749
-1.14738
-1.26609
-1.36959
-1.45506
-1.52109
-1.56729
-1.5942
-1.6028
-1.59395
-1.56835
-1.5265
-1.46872
-1.39524
-1.30622
-1.2019
-1.08269
-0.949433
-0.804121
-0.652093
-0.500993
-0.359173
-0.237328
-0.144808
-0.0860963
-0.0578926
-0.0509106
-0.0587301
0.00938585
-8.33727e-05
-0.043676
-0.109126
-0.187253
-0.278377
-0.38386
-0.502625
-0.631728
-0.767523
-0.907675
-1.04705
-1.18059
-1.303
-1.40997
-1.49872
-1.56832
-1.61927
-1.65284
-1.67057
-1.67377
-1.66335
-1.63981
-1.60326
-1.55353
-1.4901
-1.41217
-1.31887
-1.20928
-1.08298
-0.940757
-0.785925
-0.625337
-0.46945
-0.331196
-0.222984
-0.152031
-0.116913
-0.107585
-0.116415
-0.0286649
-0.0404706
-0.0954396
-0.17773
-0.274143
-0.383023
-0.504298
-0.635754
-0.773808
-0.915787
-1.05713
-1.19319
-1.31895
-1.42994
-1.52311
-1.59745
-1.6538
-1.69406
-1.7203
-1.73425
-1.73702
-1.72915
-1.7107
-1.68131
-1.64032
-1.58669
-1.51908
-1.43575
-1.33499
-1.2153
-1.07614
-0.919368
-0.751477
-0.582858
-0.428607
-0.305354
-0.22336
-0.18211
-0.170777
-0.180318
-0.0871945
-0.100334
-0.16561
-0.263381
-0.375734
-0.498507
-0.630404
-0.768798
-0.910859
-1.05273
-1.19031
-1.31916
-1.43468
-1.53332
-1.61359
-1.67616
-1.72323
-1.75733
-1.78061
-1.79444
-1.79948
-1.79578
-1.78297
-1.76038
-1.72707
-1.68183
-1.62308
-1.54879
-1.45665
-1.34427
-1.20984
-1.05352
-0.879886
-0.700569
-0.530815
-0.391865
-0.298745
-0.252441
-0.240184
-0.250384
-0.164966
-0.178081
-0.251334
-0.361735
-0.486527
-0.618819
-0.756401
-0.896983
-1.03822
-1.17617
-1.30722
-1.42705
-1.5317
-1.61885
-1.68851
-1.74264
-1.78412
-1.81552
-1.83858
-1.85413
-1.86227
-1.86264
-1.85466
-1.83756
-1.81046
-1.77219
-1.72116
-1.65528
-1.57189
-1.46796
-1.34043
-1.18774
-1.01213
-0.823216
-0.639664
-0.484321
-0.378729
-0.327362
-0.315511
-0.326689
-0.258367
-0.270068
-0.348159
-0.467502
-0.600859
-0.738576
-0.877772
-1.01709
-1.15424
-1.28605
-1.4092
-1.51947
-1.6139
-1.69137
-1.75309
-1.8018
-1.84045
-1.87125
-1.89536
-1.91299
-1.92382
-1.92733
-1.92294
-1.91004
-1.88793
-1.85563
-1.8117
-1.75408
-1.68007
-1.58595
-1.4678
-1.32225
-1.14896
-0.95454
-0.757952
-0.585879
-0.465241
-0.40728
-0.396893
-0.409876
-0.362372
-0.371474
-0.451029
-0.575387
-0.71368
-0.853619
-0.991458
-1.12717
-1.25858
-1.38317
-1.49776
-1.59896
-1.68454
-1.7544
-1.81059
-1.85609
-1.89358
-1.92468
-1.94992
-1.96908
-1.98165
-1.98714
-1.98517
-1.97538
-1.9573
-1.93018
-1.89278
-1.84329
-1.77892
-1.69599
-1.58987
-1.4556
-1.29007
-1.09621
-0.889585
-0.700043
-0.561574
-0.493642
-0.484773
-0.5012
-0.471597
-0.477093
-0.555192
-0.680683
-0.820973
-0.960887
-1.09574
-1.22638
-1.35119
-1.46821
-1.57461
-1.66767
-1.74598
-1.81011
-1.86257
-1.90623
-1.94326
-1.97467
-2.00049
-2.02027
-2.03354
-2.03999
-2.03947
-2.03186
-2.01687
-1.99397
-1.96219
-1.91995
-1.86485
-1.79345
-1.70102
-1.58175
-1.43013
-1.24461
-1.03485
-0.830616
-0.67122
-0.588902
-0.579504
-0.602242
-0.580902
-0.582189
-0.656387
-0.779991
-0.919784
-1.05812
-1.18914
-1.31423
-1.4323
-1.54201
-1.64096
-1.72707
-1.79957
-1.85959
-1.90944
-1.95194
-1.98857
-2.01987
-2.04556
-2.06516
-2.07835
-2.08504
-2.08528
-2.0791
-2.06637
-2.04673
-2.01942
-1.98321
-1.93612
-1.87521
-1.79621
-1.69334
-1.55981
-1.39045
-1.18844
-0.97617
-0.797641
-0.696064
-0.681275
-0.714411
-0.685871
-0.682821
-0.751342
-0.870614
-1.00796
-1.14366
-1.27076
-1.39051
-1.50223
-1.60519
-1.69767
-1.77807
-1.84606
-1.90298
-1.95112
-1.99262
-2.02866
-2.05938
-2.08439
-2.10331
-2.11601
-2.12257
-2.12317
-2.11793
-2.10684
-2.08965
-2.06582
-2.0344
-1.99383
-1.94172
-1.8745
-1.78704
-1.67253
-1.5238
-1.33856
-1.13011
-0.939739
-0.817385
-0.790263
-0.837857
-0.783084
-0.775935
-0.837662
-0.950716
-1.08416
-1.21648
-1.34019
-1.45513
-1.5612
-1.65831
-1.74534
-1.82114
-1.88571
-1.94035
-1.98713
-2.02775
-2.063
-2.09285
-2.11692
-2.13499
-2.14706
-2.15336
-2.15412
-2.14953
-2.13963
-2.12428
-2.10313
-2.07545
-2.04007
-1.99513
-1.93775
-1.86363
-1.76666
-1.63924
-1.47579
-1.28206
-1.08932
-0.951251
-0.906856
-0.97061
-0.870099
-0.859364
-0.913746
-1.01929
-1.14783
-1.27678
-1.39732
-1.50811
-1.60939
-1.70162
-1.78423
-1.85645
-1.91846
-1.97147
-2.0172
-2.05699
-2.09139
-2.1203
-2.14343
-2.16068
-2.17219
-2.17823
-2.17907
-2.17492
-2.16586
-2.15186
-2.13269
-2.10788
-2.07656
-2.03735
-1.98801
-1.92508
-1.84336
-1.73573
-1.59514
-1.42178
-1.23639
-1.08936
-1.02956
-1.10858
-0.945403
-0.931759
-0.978707
-1.0759
-1.19876
-1.3243
-1.44204
-1.54949
-1.64695
-1.73531
-1.81445
-1.884
-1.94419
-1.99609
-2.04107
-2.08019
-2.11385
-2.14195
-2.16429
-2.18089
-2.19197
-2.19781
-2.19869
-2.19482
-2.18632
-2.17323
-2.15546
-2.13273
-2.10449
-2.06974
-2.02683
-1.97307
-1.9042
-1.81398
-1.69497
-1.54364
-1.37197
-1.22136
-1.15324
-1.24039
-1.00828
-0.992477
-1.03221
-1.12058
-1.23707
-1.35908
-1.47437
-1.57933
-1.67396
-1.75941
-1.83601
-1.90368
-1.96272
-2.01399
-2.05857
-2.09729
-2.13045
-2.15798
-2.17979
-2.19598
-2.20679
-2.21251
-2.2134
-2.20969
-2.20151
-2.18897
-2.17209
-2.15077
-2.1247
-2.09326
-2.05531
-2.00884
-1.95052
-1.87505
-1.77522
-1.64481
-1.48823
-1.33798
-1.26785
-1.35274
-1.05868
-1.04146
-1.07438
-1.15371
-1.26325
-1.3814
-1.4945
-1.59769
-1.69044
-1.77394
-1.84885
-1.91538
-1.97385
-2.02497
-2.06955
-2.10823
-2.14123
-2.16853
-2.19012
-2.20615
-2.21686
-2.22255
-2.22346
-2.2198
-2.21174
-2.19944
-2.183
-2.16248
-2.13779
-2.10861
-2.07426
-2.03335
-1.98335
-1.91991
-1.83626
-1.72419
-1.58195
-1.43515
-1.36204
-1.43302
-1.09709
-1.07915
-1.10575
-1.17598
-1.27796
-1.39171
-1.5027
-1.60472
-1.69641
-1.77883
-1.85285
-1.91892
-1.9774
-2.02884
-2.07386
-2.1129
-2.14615
-2.17361
-2.19532
-2.21146
-2.22226
-2.22801
-2.22894
-2.22526
-2.21716
-2.20482
-2.18846
-2.16821
-2.14419
-2.11634
-2.08433
-2.04731
-2.00348
-1.94931
-1.87858
-1.78172
-1.65202
-1.50841
-1.42818
-1.47408
-1.12439
-1.10635
-1.12715
-1.18835
-1.28216
-1.39078
-1.49941
-1.60057
-1.69187
-1.774
-1.84789
-1.91415
-1.97318
-2.02543
-2.07133
-2.11118
-2.14511
-2.17314
-2.19533
-2.21185
-2.22294
-2.22886
-2.22984
-2.22609
-2.21781
-2.20524
-2.18861
-2.16819
-2.14422
-2.11683
-2.08601
-2.05133
-2.01157
-1.96395
-1.90277
-1.81771
-1.69798
-1.55553
-1.46308
-1.47483
-1.14166
-1.12416
-1.1397
-1.19194
-1.27693
-1.37959
-1.48517
-1.58545
-1.67681
-1.75931
-1.83379
-1.90088
-1.96102
-2.01457
-2.06181
-2.10293
-2.138
-2.16701
-2.19002
-2.20721
-2.21879
-2.22501
-2.22609
-2.22226
-2.21371
-2.20071
-2.18356
-2.16258
-2.1381
-2.11042
-2.07972
-2.04593
-2.00829
-1.96457
-1.9096
-1.8328
-1.72015
-1.57652
-1.46773
-1.4407
-1.15043
-1.13389
-1.14466
-1.18806
-1.26353
-1.35906
-1.46057
-1.55966
-1.65123
-1.73461
-1.81033
-1.8789
-1.94074
-1.99612
-2.0452
-2.08806
-2.12471
-2.15511
-2.17931
-2.19745
-2.20973
-2.21639
-2.21765
-2.21373
-2.20485
-2.1913
-2.17339
-2.15152
-2.12606
-2.09742
-2.06591
-2.0317
-1.99436
-1.9521
-1.90021
-1.82824
-1.7198
-1.57325
-1.44812
-1.37974
-1.1522
-1.13689
-1.14343
-1.1781
-1.2433
-1.33033
-1.42639
-1.52357
-1.61517
-1.69974
-1.77725
-1.84798
-1.91217
-1.96997
-2.02143
-2.06654
-2.10523
-2.13744
-2.16318
-2.18256
-2.19577
-2.20302
-2.20455
-2.20057
-2.19133
-2.17711
-2.15827
-2.13522
-2.10838
-2.0782
-2.04506
-2.0093
-1.97072
-1.92783
-1.87642
-1.80681
-1.70061
-1.54929
-1.40944
-1.29748
-1.14842
-1.13455
-1.13738
-1.1635
-1.21769
-1.29479
-1.38421
-1.47774
-1.56876
-1.65455
-1.73431
-1.80783
-1.87507
-1.93599
-1.99048
-2.03842
-2.07967
-2.11413
-2.14179
-2.16271
-2.17708
-2.18509
-2.18698
-2.18299
-2.17336
-2.15841
-2.1385
-2.11404
-2.08547
-2.05325
-2.01782
-1.97956
-1.93851
-1.89342
-1.84084
-1.77236
-1.66767
-1.51042
-1.35504
-1.19568
-1.14048
-1.12821
-1.12785
-1.1456
-1.18811
-1.25371
-1.33463
-1.42283
-1.51233
-1.59907
-1.6813
-1.75818
-1.82921
-1.89402
-1.95229
-2.00375
-2.04817
-2.0854
-2.11539
-2.13821
-2.15399
-2.16296
-2.16535
-2.16141
-2.15141
-2.13567
-2.11457
-2.08851
-2.05793
-2.02327
-1.98497
-1.94348
-1.89901
-1.85067
-1.7962
-1.72854
-1.62603
-1.46238
-1.2899
-1.07194
-1.12971
-1.11916
-1.11599
-1.12558
-1.1558
-1.20829
-1.27853
-1.35969
-1.44643
-1.5335
-1.6182
-1.69887
-1.77438
-1.84389
-1.90678
-1.96255
-2.01086
-2.05149
-2.08434
-2.10946
-2.127
-2.13717
-2.14023
-2.13645
-2.12613
-2.10959
-2.08722
-2.05941
-2.02657
-1.98912
-1.94748
-1.90217
-1.85356
-1.80135
-1.7446
-1.67792
-1.57948
-1.41
-1.21804
-0.919905
-1.11732
-1.10859
-1.10284
-1.10441
-1.12178
-1.15973
-1.21733
-1.2898
-1.37189
-1.45843
-1.54537
-1.63007
-1.71063
-1.7856
-1.85394
-1.91487
-1.96786
-2.01259
-2.04891
-2.07686
-2.09658
-2.1083
-2.11229
-2.10885
-2.09832
-2.08104
-2.05737
-2.02769
-1.9924
-1.95186
-1.90649
-1.85681
-1.80342
-1.74678
-1.68719
-1.62123
-1.52865
-1.35355
-1.14055
-0.733195
-1.1045
-1.0977
-1.08927
-1.08269
-1.08667
-1.10883
-1.15195
-1.21386
-1.28969
-1.37476
-1.46356
-1.55236
-1.63836
-1.71941
-1.79394
-1.86082
-1.91928
-1.96885
-2.00934
-2.04072
-2.06315
-2.07685
-2.08213
-2.07934
-2.06882
-2.05093
-2.02602
-1.99446
-1.95658
-1.91271
-1.86322
-1.80864
-1.74978
-1.68779
-1.62419
-1.55729
-1.47008
-1.28408
-1.04242
-0.49151
-1.09266
-1.08779
-1.07616
-1.06089
-1.05082
-1.05619
-1.08337
-1.13312
-1.20182
-1.28398
-1.37411
-1.46692
-1.55856
-1.64609
-1.72737
-1.80083
-1.86543
-1.92053
-1.96583
-2.00126
-2.02696
-2.04317
-2.05023
-2.04848
-2.03831
-2.02008
-1.99413
-1.96076
-1.92028
-1.87291
-1.81897
-1.75888
-1.69366
-1.62475
-1.55484
-1.48295
-1.39699
-1.1866
-0.901579
-0.153875
-1.08374
-1.08056
-1.0644
-1.0391
-1.01396
-1.00168
-1.01201
-1.04854
-1.10911
-1.1881
-1.27892
-1.37544
-1.47267
-1.56674
-1.65508
-1.73551
-1.80672
-1.86788
-1.91856
-1.95862
-1.98817
-2.00744
-2.01681
-2.01662
-2.00728
-1.98912
-1.96247
-1.92757
-1.88463
-1.83372
-1.775
-1.70868
-1.63572
-1.55752
-1.47703
-1.39247
-1.29915
-1.04463
-0.719495
0.346946
-1.08146
-1.07907
-1.05591
-1.01834
-0.976379
-0.945507
-0.938447
-0.961239
-1.01307
-1.08844
-1.17991
-1.28021
-1.383
-1.48292
-1.5784
-1.66582
-1.74365
-1.81106
-1.86753
-1.91272
-1.94666
-1.96958
-1.98186
-1.98385
-1.97595
-1.95844
-1.93165
-1.89567
-1.85059
-1.79624
-1.73249
-1.65898
-1.5763
-1.4847
-1.38679
-1.27755
-1.15365
-0.830306
-0.481713
1.11469
-1.09207
-1.0884
-1.0524
-0.998048
-0.936847
-0.885636
-0.8607
-0.869688
-0.912812
-0.984492
-1.07647
-1.18034
-1.28882
-1.39638
-1.49888
-1.59293
-1.67709
-1.75053
-1.81297
-1.86353
-1.90216
-1.92922
-1.94507
-1.94992
-1.94419
-1.92812
-1.90195
-1.86554
-1.81889
-1.7613
-1.69222
-1.61013
-1.51436
-1.40222
-1.27393
-1.11569
-0.907658
-0.483152
0.022565
2.35052
-1.12965
-1.13015
-1.06986
-0.987223
-0.898876
-0.823318
-0.777753
-0.771948
-0.806031
-0.873945
-0.966501
-1.07416
-1.18869
-1.30291
-1.41258
-1.51452
-1.60659
-1.68737
-1.75624
-1.81234
-1.85555
-1.88684
-1.90651
-1.91448
-1.91139
-1.89753
-1.87294
-1.83688
-1.78937
-1.72888
-1.65417
-1.56134
-1.44687
-1.30101
-1.11524
-0.854194
-0.468486
0.253225
1.37283
4.62993
-1.27671
-1.20823
-1.08577
-0.966423
-0.845062
-0.740841
-0.673341
-0.653198
-0.679511
-0.745285
-0.840027
-0.952697
-1.07403
-1.19693
-1.31648
-1.42754
-1.52809
-1.61659
-1.69262
-1.75534
-1.80516
-1.84192
-1.86647
-1.87845
-1.87898
-1.86747
-1.84484
-1.80935
-1.7616
-1.69854
-1.61845
-1.51254
-1.37237
-1.17264
-0.881107
-0.405127
0.3889
1.86504
4.32358
9.26866
-1.23828
-1.48048
-1.27293
-1.04964
-0.84906
-0.693498
-0.592625
-0.551762
-0.567837
-0.630385
-0.726769
-0.844361
-0.972883
-1.1036
-1.22976
-1.34832
-1.45624
-1.55135
-1.63367
-1.70199
-1.75733
-1.79869
-1.8278
-1.84328
-1.8475
-1.8382
-1.8183
-1.78373
-1.73782
-1.67285
-1.59057
-1.47181
-1.30565
-1.03084
-0.578329
0.26265
1.77501
4.62864
9.42962
17.2179
-3.22316
-1.65921
-1.086