/*--------------------------------*- C++ -*----------------------------------*\
| =========                 |                                                 |
| \\      /  F ield         | OpenFOAM: The Open Source CFD Toolbox           |
|  \\    /   O peration     | Version:  v1806                                 |
|   \\  /    A nd           | Web:      www.OpenFOAM.com                      |
|    \\/     M anipulation  |                                                 |
\*---------------------------------------------------------------------------*/
FoamFile
{
    version     2.0;
    format      ascii;
    class       volVectorField;
    location    "5";
    object      U;
}
// * * * * * * * * * * * * * * * * * * * * * * * * * * * * * * * * * * * * * //

dimensions      [0 1 -1 0 0 0 0];


internalField   nonuniform List<vector> 
64000
(
(0.0011973 -0.00120778 6.19815e-05)
(0.00723039 -0.00270822 -0.000839156)
(0.0168511 -0.00297374 -0.00100696)
(0.0254294 -0.0026231 -0.000754116)
(0.0320256 -0.00219567 -0.000535337)
(0.0369922 -0.00200593 -0.000568863)
(0.040859 -0.00202447 -0.000858103)
(0.0439092 -0.0019743 -0.00118931)
(0.0459199 -0.00185136 -0.00145979)
(0.0461315 -0.00168754 -0.001575)
(0.0436245 -0.00156842 -0.00144045)
(0.0374762 -0.00162714 -0.000946007)
(0.0268226 -0.00195455 2.19113e-05)
(0.0110461 -0.00260057 0.00141649)
(-0.010639 -0.00354464 0.00296065)
(-0.0381745 -0.00417066 0.00467444)
(-0.0704179 -0.00416922 0.00591514)
(-0.105985 -0.00319567 0.00575787)
(-0.143172 -0.0008992 0.00341209)
(-0.179849 0.00315828 -0.00129738)
(-0.213355 0.00918319 -0.00844295)
(-0.240863 0.0171416 -0.0179207)
(-0.259456 0.0267169 -0.0294049)
(-0.266374 0.0372627 -0.0423306)
(-0.259338 0.0478338 -0.0558499)
(-0.237051 0.0573172 -0.0686743)
(-0.199927 0.0645743 -0.0791517)
(-0.150534 0.0686638 -0.0854568)
(-0.0938428 0.0689506 -0.085933)
(-0.0366511 0.065231 -0.0797173)
(0.0132039 0.057709 -0.0675413)
(0.0483736 0.0474433 -0.0509776)
(0.0654423 0.0359758 -0.0338596)
(0.0661811 0.0249667 -0.0192741)
(0.056149 0.0159184 -0.00908451)
(0.0419569 0.00951551 -0.00334353)
(0.0283264 0.00567025 -0.000901635)
(0.0170462 0.00380935 -0.000266846)
(0.00778596 0.00291078 -0.000176173)
(0.00177725 0.00128367 -1.27234e-05)
(0.00235094 -0.00531383 6.11981e-06)
(0.0128444 -0.00967545 -0.0021892)
(0.0288566 -0.00946033 -0.00311192)
(0.0426329 -0.00690938 -0.00329055)
(0.0523114 -0.00378293 -0.00362225)
(0.0582859 -0.000784978 -0.00447745)
(0.0614036 0.00210941 -0.00586853)
(0.0616309 0.00544732 -0.0076463)
(0.057935 0.00956795 -0.00953843)
(0.048721 0.0146477 -0.0113936)
(0.0321445 0.0207515 -0.0131733)
(0.00654447 0.0278592 -0.0148946)
(-0.0293336 0.0360524 -0.0166151)
(-0.0760107 0.045458 -0.0184657)
(-0.133068 0.0562734 -0.0208458)
(-0.198733 0.069365 -0.0243065)
(-0.26987 0.0850764 -0.0296978)
(-0.342444 0.103625 -0.0379109)
(-0.411878 0.125052 -0.049527)
(-0.473441 0.149241 -0.0645763)
(-0.522645 0.175512 -0.0826628)
(-0.555584 0.202785 -0.102943)
(-0.569174 0.229644 -0.124117)
(-0.561422 0.254412 -0.144629)
(-0.531411 0.275308 -0.16284)
(-0.479505 0.290413 -0.176743)
(-0.408164 0.298013 -0.184423)
(-0.321839 0.296739 -0.184052)
(-0.227348 0.285789 -0.174513)
(-0.133186 0.265158 -0.156019)
(-0.0485694 0.23566 -0.130475)
(0.0173953 0.199406 -0.101185)
(0.0590721 0.16 -0.0724463)
(0.0765173 0.121423 -0.0482974)
(0.0748958 0.0877277 -0.0307111)
(0.0624122 0.0615822 -0.0195988)
(0.0465695 0.0436216 -0.0133813)
(0.0313793 0.0324702 -0.00981114)
(0.0171306 0.0246633 -0.00665499)
(0.00505629 0.0132551 -0.00262702)
(0.00269126 -0.0105445 -0.000606872)
(0.0150206 -0.0166425 -0.00413205)
(0.0334188 -0.0138258 -0.00568195)
(0.0479722 -0.0063518 -0.00623047)
(0.0565987 0.002885 -0.0071786)
(0.0597877 0.0128255 -0.009234)
(0.058127 0.0237862 -0.01228)
(0.0512078 0.0366487 -0.0159449)
(0.0374227 0.0522645 -0.0198671)
(0.0146748 0.071126 -0.0237999)
(-0.018949 0.0934316 -0.0275792)
(-0.0644537 0.119168 -0.0310282)
(-0.121632 0.148063 -0.0341843)
(-0.189026 0.179767 -0.0372633)
(-0.263894 0.213975 -0.0408087)
(-0.342467 0.250572 -0.0454203)
(-0.420434 0.289281 -0.0514512)
(-0.493306 0.329727 -0.058987)
(-0.556925 0.371328 -0.0679295)
(-0.607884 0.413232 -0.0779263)
(-0.643494 0.454169 -0.0884111)
(-0.661787 0.49256 -0.0986955)
(-0.66159 0.526567 -0.108067)
(-0.642456 0.554186 -0.115847)
(-0.604653 0.57322 -0.12106)
(-0.549604 0.581393 -0.123012)
(-0.479858 0.57684 -0.121104)
(-0.399212 0.558212 -0.115023)
(-0.312712 0.525202 -0.104956)
(-0.226209 0.478906 -0.0917551)
(-0.145879 0.421958 -0.0768241)
(-0.0776657 0.358161 -0.0617286)
(-0.0256656 0.292884 -0.0480739)
(0.00856157 0.23121 -0.0368763)
(0.0263389 0.177523 -0.0282804)
(0.0319197 0.13466 -0.0223249)
(0.0304732 0.103273 -0.0183127)
(0.0253634 0.081334 -0.0148561)
(0.0167858 0.0630795 -0.0101947)
(0.00573315 0.0352207 -0.00360697)
(0.00287359 -0.0136034 -0.00208134)
(0.0164649 -0.0188375 -0.00730772)
(0.0360547 -0.0110804 -0.00934663)
(0.0497321 0.00385748 -0.0100612)
(0.0553329 0.0222009 -0.0117038)
(0.053758 0.0428012 -0.0150437)
(0.0457767 0.0664567 -0.0196797)
(0.0307084 0.0943273 -0.0248247)
(0.00686746 0.12703 -0.0297811)
(-0.0272931 0.164504 -0.0340766)
(-0.0722996 0.206102 -0.0374064)
(-0.127291 0.250841 -0.0396137)
(-0.190273 0.297529 -0.0406497)
(-0.258408 0.345219 -0.0406868)
(-0.328393 0.393271 -0.0401758)
(-0.396943 0.44129 -0.0395738)
(-0.461062 0.488931 -0.0389892)
(-0.517817 0.535769 -0.0384058)
(-0.564823 0.581062 -0.0377353)
(-0.600363 0.623749 -0.0368341)
(-0.623266 0.662475 -0.0355352)
(-0.632877 0.695697 -0.0337712)
(-0.629081 0.721826 -0.0317024)
(-0.612136 0.739041 -0.0294583)
(-0.582531 0.744724 -0.0268638)
(-0.54163 0.737133 -0.0239557)
(-0.491212 0.714993 -0.0208675)
(-0.433623 0.677876 -0.0179111)
(-0.371477 0.626615 -0.0155292)
(-0.30739 0.563657 -0.0142667)
(-0.24407 0.493332 -0.0146031)
(-0.184087 0.419888 -0.0161904)
(-0.129643 0.348516 -0.0183229)
(-0.0830395 0.283495 -0.0200719)
(-0.0462971 0.227914 -0.0207651)
(-0.0197982 0.183386 -0.0204883)
(-0.00204842 0.149673 -0.0193298)
(0.00835059 0.123902 -0.0166408)
(0.010716 0.0986271 -0.0113044)
(0.00482444 0.0557976 -0.00340087)
(0.00319827 -0.0124377 -0.00472851)
(0.0184437 -0.0130536 -0.0123268)
(0.0395685 0.00224251 -0.0147436)
(0.0522704 0.0269216 -0.0152913)
(0.0546015 0.056856 -0.017255)
(0.048464 0.0911709 -0.0213331)
(0.0351626 0.130553 -0.026518)
(0.0143064 0.175403 -0.0315007)
(-0.0150831 0.225143 -0.0353274)
(-0.0533331 0.278477 -0.0375462)
(-0.0995721 0.333735 -0.0379838)
(-0.151912 0.389145 -0.0366095)
(-0.208002 0.443272 -0.033466)
(-0.265259 0.495121 -0.0287562)
(-0.321293 0.544071 -0.0228776)
(-0.37418 0.589769 -0.0161678)
(-0.422375 0.632035 -0.00865115)
(-0.464262 0.670627 -0.000460796)
(-0.498699 0.704931 0.00829075)
(-0.525064 0.734252 0.0173933)
(-0.542978 0.757598 0.0264544)
(-0.552173 0.773906 0.0349184)
(-0.552418 0.781918 0.0416666)
(-0.544462 0.780279 0.0457807)
(-0.530614 0.768069 0.0481192)
(-0.510714 0.744444 0.0485406)
(-0.485499 0.709115 0.0468193)
(-0.4555 0.662607 0.042802)
(-0.420745 0.606438 0.0364581)
(-0.380457 0.543272 0.0277564)
(-0.334161 0.476754 0.0163759)
(-0.283403 0.410601 0.00448466)
(-0.228515 0.348545 -0.00644131)
(-0.172267 0.29345 -0.0149586)
(-0.119129 0.246991 -0.0201372)
(-0.0733498 0.209636 -0.0220745)
(-0.0370998 0.180395 -0.0214551)
(-0.0110615 0.155632 -0.0182884)
(0.00329978 0.126495 -0.0119931)
(0.00364293 0.0719764 -0.00302672)
(0.00376514 -0.00506832 -0.00867012)
(0.021773 0.00388096 -0.0194539)
(0.0458643 0.0288694 -0.0219093)
(0.0587376 0.0644439 -0.0216413)
(0.0591584 0.106878 -0.0230584)
(0.0504061 0.155232 -0.0266494)
(0.0347104 0.209243 -0.0307395)
(0.0123603 0.267784 -0.0337061)
(-0.0168597 0.328885 -0.0346845)
(-0.0524804 0.390311 -0.0334939)
(-0.0931548 0.449904 -0.0302878)
(-0.137088 0.505795 -0.0251766)
(-0.18231 0.556734 -0.0182447)
(-0.227 0.601819 -0.0096612)
(-0.26973 0.640582 0.000262744)
(-0.309596 0.673072 0.0111373)
(-0.345815 0.69933 0.022668)
(-0.37727 0.719208 0.0342227)
(-0.403891 0.73289 0.0457996)
(-0.425737 0.740485 0.0570715)
(-0.443345 0.742101 0.0669327)
(-0.456922 0.737716 0.0747818)
(-0.466849 0.726932 0.0799069)
(-0.473889 0.709374 0.0818295)
(-0.478825 0.685593 0.0809756)
(-0.481238 0.655517 0.0773426)
(-0.48064 0.619302 0.0709438)
(-0.475822 0.577409 0.0618494)
(-0.464753 0.530696 0.0502321)
(-0.444612 0.480439 0.0364821)
(-0.413188 0.428234 0.0216019)
(-0.370194 0.377008 0.00672041)
(-0.315596 0.329475 -0.00717266)
(-0.25209 0.287744 -0.018323)
(-0.185324 0.252888 -0.0252915)
(-0.122404 0.224653 -0.0276279)
(-0.0691614 0.201415 -0.0260446)
(-0.0288362 0.17909 -0.0212843)
(-0.00329702 0.147814 -0.0133006)
(0.00280758 0.0840791 -0.00324549)
(0.00493784 0.0103405 -0.0135704)
(0.0271122 0.0338897 -0.0280789)
(0.0560535 0.0695632 -0.0302356)
(0.0712833 0.115439 -0.0282159)
(0.0721361 0.168746 -0.0279272)
(0.0634601 0.228165 -0.0296592)
(0.0485318 0.292039 -0.0313024)
(0.0282146 0.357733 -0.0312142)
(0.00269634 0.422347 -0.028849)
(-0.0273321 0.483323 -0.0244435)
(-0.0607208 0.538744 -0.0183782)
(-0.0959657 0.586718 -0.0107234)
(-0.131564 0.626253 -0.00148364)
(-0.166537 0.656905 0.00920096)
(-0.199998 0.678469 0.0212067)
(-0.231216 0.690919 0.0336659)
(-0.260441 0.695122 0.0458392)
(-0.287391 0.691987 0.0570994)
(-0.312192 0.68281 0.0670755)
(-0.335278 0.668918 0.0753843)
(-0.357346 0.651731 0.0815288)
(-0.378896 0.632319 0.0852875)
(-0.400377 0.611297 0.0865289)
(-0.422105 0.589006 0.0852535)
(-0.443976 0.565724 0.0816917)
(-0.465037 0.541097 0.0759587)
(-0.48373 0.514575 0.0681512)
(-0.497684 0.485528 0.058335)
(-0.503853 0.453516 0.046579)
(-0.498732 0.418519 0.0330736)
(-0.479062 0.381208 0.0183604)
(-0.44282 0.344014 0.00403419)
(-0.389784 0.309254 -0.0101807)
(-0.321969 0.279289 -0.0224733)
(-0.244857 0.255036 -0.0309436)
(-0.16717 0.23554 -0.0341086)
(-0.0982024 0.218125 -0.0319189)
(-0.0444221 0.198209 -0.0255228)
(-0.00888563 0.165544 -0.0157051)
(0.00207434 0.0941865 -0.00391056)
(0.00642142 0.0339816 -0.0188348)
(0.0342409 0.0764323 -0.0373196)
(0.0705197 0.122583 -0.0386556)
(0.0906585 0.17636 -0.0339681)
(0.0943597 0.236733 -0.0309206)
(0.0879995 0.302055 -0.0298438)
(0.0758012 0.369422 -0.0284654)
(0.059002 0.435226 -0.025307)
(0.0379107 0.496297 -0.0201609)
(0.0133816 0.550213 -0.0135565)
(-0.013967 0.595142 -0.00601371)
(-0.0429731 0.629748 0.00292214)
(-0.0724922 0.653634 0.0136689)
(-0.101748 0.665939 0.0251236)
(-0.130535 0.667084 0.036743)
(-0.158686 0.657953 0.0476973)
(-0.186379 0.640659 0.0572692)
(-0.213625 0.617681 0.0649409)
(-0.240687 0.59162 0.0704835)
(-0.268072 0.564822 0.0739049)
(-0.296456 0.539239 0.0753531)
(-0.326392 0.516122 0.0750708)
(-0.358178 0.495962 0.0733159)
(-0.391713 0.47858 0.0703322)
(-0.426268 0.463214 0.0663156)
(-0.460348 0.448542 0.0613175)
(-0.491834 0.43303 0.055269)
(-0.518002 0.415211 0.0479954)
(-0.53566 0.394082 0.0392378)
(-0.541218 0.369452 0.0287493)
(-0.530916 0.342134 0.0165122)
(-0.501498 0.314203 0.00320063)
(-0.451527 0.288559 -0.0106613)
(-0.382201 0.267794 -0.0236941)
(-0.298192 0.252971 -0.0337755)
(-0.208724 0.242407 -0.0386825)
(-0.125612 0.231771 -0.037164)
(-0.0589868 0.21508 -0.0299514)
(-0.0139394 0.181726 -0.0186146)
(0.00146305 0.103992 -0.0048726)
(0.00826734 0.0642152 -0.0235742)
(0.0430273 0.128915 -0.0459142)
(0.0887457 0.18427 -0.0460953)
(0.116004 0.242381 -0.0381384)
(0.12437 0.304943 -0.0316902)
(0.121503 0.370427 -0.0274625)
(0.112515 0.435226 -0.023228)
(0.0990289 0.495376 -0.0176802)
(0.0814829 0.547881 -0.0108355)
(0.0604947 0.590504 -0.00323881)
(0.036643 0.621769 0.00543347)
(0.0110188 0.640982 0.0150979)
(-0.0158475 0.647481 0.0253938)
(-0.0437025 0.641068 0.0356312)
(-0.0722683 0.623122 0.0448818)
(-0.101455 0.59607 0.0523329)
(-0.131168 0.563398 0.0574992)
(-0.161413 0.528804 0.060303)
(-0.192493 0.495558 0.0610531)
(-0.22496 0.466066 0.0602831)
(-0.259444 0.441742 0.0585557)
(-0.29633 0.422981 0.0563415)
(-0.335581 0.409271 0.0539741)
(-0.376677 0.399422 0.0516404)
(-0.418577 0.391787 0.0493639)
(-0.459767 0.38447 0.0469722)
(-0.498345 0.37563 0.0441197)
(-0.531962 0.363746 0.0403319)
(-0.557694 0.347944 0.0349903)
(-0.571855 0.328263 0.0275204)
(-0.570126 0.305835 0.01758)
(-0.54812 0.282924 0.00535289)
(-0.502743 0.262737 -0.00851425)
(-0.43397 0.248669 -0.0223725)
(-0.345656 0.242196 -0.0339799)
(-0.247124 0.241332 -0.0407521)
(-0.151858 0.239823 -0.0406867)
(-0.0732488 0.22892 -0.0336131)
(-0.0190011 0.196723 -0.0213405)
(0.000794637 0.113782 -0.0058991)
(0.010286 0.0985097 -0.0270213)
(0.0527563 0.18728 -0.0527838)
(0.109315 0.250045 -0.0517887)
(0.145206 0.308696 -0.0404071)
(0.15924 0.368657 -0.0304093)
(0.160071 0.429233 -0.0231898)
(0.153758 0.486777 -0.0167022)
(0.142465 0.537444 -0.00970197)
(0.126818 0.578489 -0.00215645)
(0.107363 0.608072 0.00603796)
(0.0846928 0.625129 0.0148253)
(0.0595415 0.628907 0.0239415)
(0.0321103 0.619036 0.0328035)
(0.00256772 0.596621 0.040619)
(-0.0286593 0.564235 0.046468)
(-0.0610766 0.525773 0.0497732)
(-0.0942861 0.485733 0.0505426)
(-0.12823 0.448139 0.0493081)
(-0.163256 0.415869 0.0468811)
(-0.199923 0.390375 0.0440713)
(-0.238669 0.371814 0.0415004)
(-0.279552 0.359344 0.0395486)
(-0.322224 0.351486 0.0383775)
(-0.36607 0.346477 0.0379692)
(-0.410328 0.342517 0.0381399)
(-0.454103 0.337897 0.0385345)
(-0.496253 0.331103 0.0386247)
(-0.535043 0.320938 0.0376896)
(-0.56777 0.306742 0.0349427)
(-0.590504 0.28861 0.0295764)
(-0.598107 0.267721 0.0210147)
(-0.584909 0.246553 0.0092439)
(-0.546129 0.228755 -0.0048542)
(-0.479737 0.218659 -0.0198249)
(-0.388825 0.218943 -0.033079)
(-0.282745 0.228211 -0.0415455)
(-0.176709 0.238555 -0.0428648)
(-0.0870151 0.237311 -0.0363292)
(-0.0241057 0.209402 -0.0235616)
(-1.27845e-05 0.123127 -0.00689713)
(0.0121923 0.13354 -0.0287119)
(0.0624476 0.246831 -0.0572612)
(0.130363 0.315327 -0.0553754)
(0.175606 0.371301 -0.0408509)
(0.195635 0.424781 -0.0275379)
(0.199793 0.476705 -0.0177751)
(0.1952 0.524011 -0.00977271)
(0.184782 0.563263 -0.00216106)
(0.16952 0.591911 0.00557777)
(0.14994 0.60849 0.0135329)
(0.126542 0.612087 0.0216033)
(0.099694 0.602141 0.029444)
(0.0695751 0.579056 0.036314)
(0.0366007 0.545055 0.0412987)
(0.00159356 0.504051 0.0436869)
(-0.034446 0.460865 0.0434081)
(-0.0708713 0.420258 0.0410577)
(-0.107673 0.385595 0.0376437)
(-0.145258 0.358496 0.0341644)
(-0.184066 0.338919 0.0313453)
(-0.224235 0.325681 0.0295709)
(-0.26557 0.317075 0.0289505)
(-0.30775 0.311349 0.0294159)
(-0.350554 0.30696 0.0307917)
(-0.393921 0.30261 0.0328105)
(-0.437802 0.297169 0.03509)
(-0.481837 0.289606 0.0370919)
(-0.524858 0.279004 0.0380613)
(-0.564384 0.264693 0.0371076)
(-0.596276 0.246559 0.0332663)
(-0.614641 0.225492 0.025729)
(-0.612409 0.203888 0.014216)
(-0.582759 0.185918 -0.000566023)
(-0.521524 0.176921 -0.0167426)
(-0.430058 0.181476 -0.0318744)
(-0.317365 0.200252 -0.0421837)
(-0.200692 0.224784 -0.0447391)
(-0.100005 0.237697 -0.0385745)
(-0.0289491 0.218295 -0.025374)
(-0.000877592 0.131554 -0.00792971)
(0.0137052 0.165997 -0.0285453)
(0.0711095 0.303076 -0.0591178)
(0.150044 0.376139 -0.0568471)
(0.204679 0.427267 -0.0397889)
(0.230625 0.471677 -0.0236474)
(0.237573 0.512667 -0.0118787)
(0.233807 0.548262 -0.00301789)
(0.223187 0.575619 0.00455947)
(0.207135 0.592307 0.011887)
(0.186266 0.597044 0.0190576)
(0.160881 0.589043 0.0260138)
(0.131158 0.568139 0.0322741)
(0.0974471 0.535633 0.0369725)
(0.0606518 0.494798 0.0392612)
(0.0221398 0.450445 0.0388221)
(-0.0166195 0.407668 0.0361888)
(-0.0549298 0.370567 0.0323564)
(-0.0929688 0.341205 0.028524)
(-0.131122 0.319573 0.0255369)
(-0.16963 0.304236 0.0237849)
(-0.208429 0.293232 0.0233023)
(-0.247363 0.284786 0.0239419)
(-0.286475 0.277594 0.0255119)
(-0.326142 0.270789 0.0278311)
(-0.366997 0.263745 0.0307088)
(-0.409685 0.255864 0.0338729)
(-0.454465 0.246446 0.0368731)
(-0.5007 0.234662 0.039031)
(-0.546316 0.21967 0.0394099)
(-0.587277 0.200959 0.0369076)
(-0.617295 0.178927 0.0304407)
(-0.628171 0.155596 0.0193977)
(-0.611139 0.135265 0.00412993)
(-0.559269 0.124345 -0.0134998)
(-0.470694 0.129979 -0.0303942)
(-0.353275 0.155999 -0.0428644)
(-0.225705 0.195896 -0.0469106)
(-0.112842 0.227756 -0.0409972)
(-0.0333801 0.222184 -0.0271087)
(-0.00165545 0.13888 -0.00909592)
(0.01465 0.193201 -0.0267677)
(0.0779931 0.352323 -0.0584847)
(0.166881 0.429386 -0.0564433)
(0.230439 0.474715 -0.0376532)
(0.262047 0.508819 -0.0193068)
(0.271322 0.537956 -0.00605423)
(0.267757 0.561785 0.0031861)
(0.25628 0.577515 0.0102909)
(0.238713 0.583434 0.0167665)
(0.215941 0.578137 0.0228802)
(0.188029 0.560926 0.028578)
(0.155111 0.532144 0.0331918)
(0.117902 0.493901 0.0358571)
(0.077909 0.450238 0.0359631)
(0.0370813 0.406279 0.0336603)
(-0.00294336 0.366734 0.0299183)
(-0.0415875 0.334403 0.025957)
(-0.0791494 0.309822 0.0228064)
(-0.116 0.291558 0.0209536)
(-0.152239 0.277422 0.0203936)
(-0.187813 0.265487 0.0208829)
(-0.222817 0.254538 0.0221666)
(-0.257708 0.244005 0.024085)
(-0.29332 0.23367 0.026572)
(-0.330736 0.223379 0.0295891)
(-0.371054 0.212837 0.033023)
(-0.415041 0.201487 0.0365677)
(-0.462682 0.188464 0.0396306)
(-0.512598 0.172692 0.0412772)
(-0.561338 0.153204 0.040205)
(-0.602777 0.129754 0.0350843)
(-0.628076 0.103726 0.0248825)
(-0.626716 0.0792578 0.00945512)
(-0.589113 0.063848 -0.00961817)
(-0.509802 0.0662019 -0.0282743)
(-0.391679 0.0955632 -0.0430007)
(-0.254116 0.149781 -0.0492535)
(-0.127204 0.204974 -0.0439591)
(-0.0376754 0.21987 -0.02908)
(-0.00221976 0.145094 -0.0104042)
(0.014953 0.213412 -0.0237926)
(0.0826241 0.391923 -0.0557305)
(0.179924 0.473047 -0.0545999)
(0.251664 0.512598 -0.0349)
(0.28865 0.536333 -0.0150104)
(0.300123 0.553733 -0.000727438)
(0.29639 0.566122 0.00841627)
(0.283557 0.571467 0.0149344)
(0.264303 0.56824 0.0204482)
(0.239506 0.554963 0.0254294)
(0.209116 0.531027 0.029795)
(0.173374 0.497236 0.0328723)
(0.133432 0.456298 0.0338635)
(0.0913988 0.412606 0.0324576)
(0.0496403 0.371052 0.0292167)
(0.0097456 0.335423 0.0253411)
(-0.0279145 0.307137 0.0220166)
(-0.0637389 0.285345 0.0199131)
(-0.0981011 0.267824 0.0191194)
(-0.131087 0.252405 0.0193323)
(-0.162777 0.237751 0.0201982)
(-0.193504 0.223393 0.0215071)
(-0.223976 0.209356 0.0232225)
(-0.255237 0.195783 0.025422)
(-0.288561 0.182705 0.028211)
(-0.325288 0.169916 0.0316237)
(-0.366596 0.156897 0.035511)
(-0.413133 0.142754 0.0394079)
(-0.464434 0.126236 0.0423959)
(-0.518111 0.105966 0.0431258)
(-0.56898 0.0809679 0.0399596)
(-0.608406 0.0517242 0.0313751)
(-0.624684 0.0216156 0.0165948)
(-0.605503 -0.00156789 -0.00348526)
(-0.541515 -0.00572916 -0.024935)
(-0.430796 0.02086 -0.0422062)
(-0.287298 0.085285 -0.0510415)
(-0.145208 0.166336 -0.0472136)
(-0.04246 0.209558 -0.0314277)
(-0.00244763 0.149949 -0.0116972)
(0.014618 0.22582 -0.0200647)
(0.0848778 0.420295 -0.0514069)
(0.188715 0.505888 -0.0515892)
(0.26768 0.540633 -0.0320197)
(0.309872 0.554814 -0.0111712)
(0.323602 0.561266 0.00388149)
(0.319685 0.563075 0.01278)
(0.305444 0.559479 0.0186309)
(0.284585 0.548834 0.0231588)
(0.257993 0.529587 0.0270121)
(0.225584 0.501195 0.0301288)
(0.187788 0.464764 0.0318833)
(0.146179 0.423304 0.0316403)
(0.103329 0.381155 0.0293577)
(0.061806 0.342575 0.0258728)
(0.0230228 0.310253 0.0224162)
(-0.0128855 0.284418 0.0199472)
(-0.0464145 0.263334 0.0187486)
(-0.07797 0.244698 0.0185943)
(-0.107695 0.226869 0.0190458)
(-0.135784 0.209246 0.0197868)
(-0.162693 0.191926 0.0207276)
(-0.1892 0.17521 0.0219574)
(-0.216365 0.159305 0.0236558)
(-0.245456 0.144207 0.0260172)
(-0.277873 0.129677 0.0291806)
(-0.31502 0.115198 0.0331389)
(-0.358049 0.099906 0.0376047)
(-0.407386 0.0825211 0.0418466)
(-0.461956 0.0614028 0.0445789)
(-0.518118 0.0349515 0.0439961)
(-0.568547 0.00259488 0.0380859)
(-0.601768 -0.0336003 0.0252876)
(-0.603277 -0.0665231 0.00553452)
(-0.559749 -0.0821471 -0.0183821)
(-0.464319 -0.0639757 -0.0393203)
(-0.323198 0.00318251 -0.0515943)
(-0.168274 0.108632 -0.0500428)
(-0.0484574 0.188413 -0.0340757)
(-0.00217703 0.152577 -0.012624)
(0.0137297 0.230406 -0.0160248)
(0.0848623 0.436872 -0.0461149)
(0.193296 0.527405 -0.0478567)
(0.278424 0.558958 -0.0291873)
(0.325667 0.565054 -0.00798262)
(0.341905 0.561869 0.00762698)
(0.3381 0.554277 0.0162825)
(0.322698 0.543113 0.0215004)
(0.300511 0.526636 0.0250942)
(0.272564 0.503178 0.0278989)
(0.238815 0.472202 0.0299152)
(0.199887 0.434906 0.03062)
(0.157678 0.394285 0.029557)
(0.115014 0.354303 0.0269181)
(0.0744749 0.318431 0.0235843)
(0.0372718 0.288322 0.0207284)
(0.00329754 0.263411 0.0189841)
(-0.0280238 0.241691 0.0183391)
(-0.0571185 0.221242 0.0183815)
(-0.0841859 0.201103 0.0186797)
(-0.109467 0.181243 0.0190296)
(-0.133433 0.16202 0.0194628)
(-0.156826 0.143734 0.0201475)
(-0.180617 0.126461 0.0213001)
(-0.205959 0.110059 0.023138)
(-0.234161 0.0942018 0.025848)
(-0.266644 0.0783616 0.0295263)
(-0.304801 0.0617273 0.034086)
(-0.349685 0.0430774 0.0390624)
(-0.401386 0.0207184 0.0434323)
(-0.457981 -0.00728278 0.0455059)
(-0.51422 -0.0424481 0.0430396)
(-0.560159 -0.0842142 0.0338015)
(-0.580999 -0.127146 0.0165117)
(-0.560149 -0.157668 -0.0076058)
(-0.485391 -0.15349 -0.0326705)
(-0.356137 -0.0932699 -0.0492738)
(-0.195098 0.0297054 -0.0514965)
(-0.0561411 0.152494 -0.0366358)
(-0.00131585 0.15128 -0.0126775)
(0.0124596 0.227805 -0.0120551)
(0.0828997 0.441927 -0.0403628)
(0.194036 0.537698 -0.043764)
(0.284233 0.567903 -0.026577)
(0.336372 0.567829 -0.00558837)
(0.355502 0.55678 0.0103397)
(0.352305 0.541037 0.0188743)
(0.336195 0.523507 0.0236172)
(0.313077 0.502521 0.0264188)
(0.284308 0.476285 0.0282885)
(0.249964 0.444152 0.0293927)
(0.210796 0.407209 0.029329)
(0.168871 0.368175 0.0277932)
(0.127084 0.330438 0.0251006)
(0.0878805 0.296692 0.0221308)
(0.0522666 0.267822 0.0198096)
(0.01999 0.242883 0.0185358)
(-0.00958065 0.220067 0.0180995)
(-0.0368731 0.198012 0.0180379)
(-0.0620887 0.176325 0.018005)
(-0.0854564 0.155273 0.0179189)
(-0.107412 0.135218 0.0178936)
(-0.12862 0.1163 0.0181215)
(-0.149925 0.0984054 0.0188035)
(-0.172322 0.0812392 0.0201308)
(-0.196953 0.0643847 0.0222869)
(-0.225115 0.047292 0.0254296)
(-0.25822 0.0291816 0.0296118)
(-0.297618 0.00891137 0.0346393)
(-0.34414 -0.0151522 0.0398532)
(-0.397355 -0.0451162 0.0438836)
(-0.454199 -0.0830846 0.0446523)
(-0.507124 -0.129787 0.0396078)
(-0.542785 -0.18193 0.026532)
(-0.543214 -0.22788 0.00497849)
(-0.491487 -0.243519 -0.0214077)
(-0.380136 -0.198493 -0.0426437)
(-0.221738 -0.0700696 -0.0500472)
(-0.0650907 0.0969938 -0.0382053)
(6.54636e-05 0.143128 -0.0114477)
(0.0109806 0.219034 -0.00840871)
(0.0793861 0.436282 -0.0345612)
(0.191437 0.537308 -0.0395973)
(0.285654 0.568008 -0.0243541)
(0.342646 0.563844 -0.0041021)
(0.364977 0.54638 0.0117288)
(0.362917 0.524169 0.0204682)
(0.346763 0.501435 0.0250121)
(0.323213 0.477002 0.0272237)
(0.294165 0.449066 0.0283411)
(0.259914 0.416786 0.0287301)
(0.221267 0.380969 0.0281414)
(0.180285 0.34388 0.0263931)
(0.139765 0.308269 0.0238219)
(0.101958 0.27613 0.0212271)
(0.0677017 0.247904 0.019307)
(0.0366864 0.222623 0.0182646)
(0.00829189 0.198888 0.0178071)
(-0.0178725 0.175869 0.0175094)
(-0.0419685 0.153528 0.0171355)
(-0.0641831 0.13219 0.0166967)
(-0.0848975 0.112077 0.0163444)
(-0.104693 0.0931279 0.0162563)
(-0.124295 0.0750588 0.0165916)
(-0.144544 0.0574632 0.017496)
(-0.166401 0.0398623 0.0191194)
(-0.19098 0.0216812 0.021628)
(-0.219564 0.00215926 0.0251548)
(-0.253531 -0.0197982 0.0296989)
(-0.294153 -0.0457946 0.034927)
(-0.342017 -0.0780396 0.0399405)
(-0.395873 -0.119013 0.0430468)
(-0.450799 -0.170495 0.041802)
(-0.495987 -0.231183 0.0335494)
(-0.513997 -0.292167 0.016619)
(-0.484438 -0.330537 -0.00763352)
(-0.393307 -0.307473 -0.0320465)
(-0.244296 -0.186642 -0.0444637)
(-0.0749131 0.017723 -0.0372355)
(0.00148911 0.124097 -0.00847882)
(0.00943904 0.205291 -0.00525307)
(0.0747494 0.421165 -0.0290478)
(0.186083 0.527081 -0.0355526)
(0.283269 0.559947 -0.0225582)
(0.344937 0.553761 -0.00342754)
(0.37097 0.53161 0.0121838)
(0.370779 0.504384 0.0212244)
(0.355221 0.47747 0.0257654)
(0.331736 0.450392 0.0275993)
(0.302899 0.421487 0.0281632)
(0.269306 0.389708 0.0280283)
(0.23177 0.35547 0.0271088)
(0.192195 0.320484 0.0253146)
(0.153142 0.286865 0.0229594)
(0.116641 0.256058 0.0206878)
(0.0834333 0.228293 0.0190238)
(0.0532336 0.202799 0.0180482)
(0.0254985 0.178629 0.0174611)
(-8.5123e-05 0.155354 0.0169166)
(-0.0236185 0.133088 0.0162739)
(-0.0452378 0.112069 0.0156001)
(-0.0652686 0.0923347 0.0150492)
(-0.0842208 0.0736507 0.0147679)
(-0.102724 0.0556176 0.014869)
(-0.121493 0.0377681 0.0154499)
(-0.141326 0.0195961 0.0166213)
(-0.163141 0.000517775 0.0185223)
(-0.188025 -0.0202237 0.0213068)
(-0.217261 -0.0437201 0.0250846)
(-0.252259 -0.0715866 0.0297869)
(-0.294219 -0.106084 0.0349304)
(-0.343296 -0.150041 0.0393318)
(-0.396929 -0.206134 0.0409464)
(-0.447234 -0.274874 0.0371127)
(-0.478654 -0.350253 0.025429)
(-0.469164 -0.412098 0.00538324)
(-0.398639 -0.41831 -0.0189652)
(-0.262055 -0.315501 -0.0356839)
(-0.0866183 -0.0867 -0.0327675)
(0.00175335 0.0908312 -0.00316034)
(0.00794871 0.187825 -0.00267149)
(0.0693932 0.398078 -0.0240544)
(0.178561 0.508068 -0.0317677)
(0.277679 0.54447 -0.0211773)
(0.343768 0.538249 -0.00345896)
(0.374009 0.513243 0.0118717)
(0.376499 0.482306 0.0212403)
(0.36222 0.452064 0.0259419)
(0.3393 0.422907 0.0276155)
(0.311099 0.393461 0.0278269)
(0.278597 0.362525 0.0273423)
(0.242597 0.330088 0.0262432)
(0.204747 0.297271 0.0245082)
(0.167272 0.265588 0.0223944)
(0.131973 0.236076 0.0203921)
(0.0995491 0.208896 0.0188829)
(0.0698133 0.18355 0.0178894)
(0.0423531 0.15949 0.0171504)
(0.0169584 0.136544 0.0164057)
(-0.00640668 0.114843 0.0155829)
(-0.0278245 0.0944749 0.0147736)
(-0.0475717 0.0753196 0.014113)
(-0.0661048 0.0570137 0.0137169)
(-0.0839811 0.0390973 0.0136604)
(-0.101821 0.0210851 0.014001)
(-0.120291 0.00247021 0.0148095)
(-0.140133 -0.0173217 0.0161854)
(-0.162226 -0.0390527 0.0182684)
(-0.187669 -0.0638249 0.0212172)
(-0.217824 -0.0932724 0.025127)
(-0.254224 -0.12976 0.0298533)
(-0.29804 -0.176436 0.034726)
(-0.348697 -0.236799 0.0382472)
(-0.401202 -0.313083 0.0380414)
(-0.44263 -0.402246 0.0313504)
(-0.450831 -0.487709 0.0162531)
(-0.400405 -0.527453 -0.00585117)
(-0.277807 -0.451861 -0.0256744)
(-0.102029 -0.213403 -0.0255971)
(-0.000414139 0.0422379 0.0026904)
(0.00658635 0.167844 -0.000681194)
(0.0636531 0.368671 -0.019718)
(0.1694 0.48148 -0.0283355)
(0.26944 0.522386 -0.0201754)
(0.339621 0.51791 -0.00409456)
(0.374492 0.491801 0.0108623)
(0.38047 0.458393 0.0205628)
(0.368211 0.425565 0.0255774)
(0.34639 0.394718 0.0273103)
(0.319199 0.364921 0.0273716)
(0.288106 0.334925 0.0266959)
(0.253932 0.304326 0.025531)
(0.218028 0.273683 0.0239168)
(0.182232 0.243964 0.0220463)
(0.148096 0.215878 0.0202727)
(0.116308 0.189577 0.0188679)
(0.0868233 0.164817 0.0178337)
(0.0593944 0.14135 0.0169678)
(0.0339292 0.119152 0.0160851)
(0.0104519 0.0983024 0.0151548)
(-0.0110602 0.0787581 0.0142784)
(-0.0308386 0.0602543 0.013557)
(-0.0493051 0.042363 0.0130868)
(-0.0669579 0.0246 0.012916)
(-0.0843513 0.00648629 0.0130728)
(-0.102049 -0.0124584 0.0135949)
(-0.120645 -0.0327956 0.0145411)
(-0.140824 -0.0552783 0.0160211)
(-0.163464 -0.0810145 0.0181961)
(-0.189787 -0.111682 0.0212546)
(-0.221454 -0.149773 0.0253108)
(-0.260354 -0.198768 0.0301635)
(-0.307548 -0.262967 0.034916)
(-0.360689 -0.346267 0.0376471)
(-0.409723 -0.448539 0.0354469)
(-0.433333 -0.557084 0.0251493)
(-0.402293 -0.631557 0.00575619)
(-0.295001 -0.591678 -0.0157639)
(-0.122907 -0.356941 -0.0183885)
(-0.0062162 -0.0214041 0.00609466)
(0.00539401 0.14646 0.00074953)
(0.0577767 0.334644 -0.0160989)
(0.159038 0.448657 -0.0253057)
(0.259019 0.494552 -0.0194927)
(0.332855 0.493302 -0.00521531)
(0.37267 0.467738 0.00923847)
(0.382903 0.43301 0.0192416)
(0.373452 0.398254 0.0246953)
(0.353315 0.365982 0.0266967)
(0.327501 0.335847 0.0268076)
(0.298053 0.306693 0.0260884)
(0.265894 0.27782 0.0249448)
(0.232098 0.24929 0.023486)
(0.198101 0.221589 0.0218542)
(0.165191 0.195138 0.020289)
(0.134036 0.170069 0.0189775)
(0.104738 0.146319 0.0179192)
(0.077226 0.123838 0.0169716)
(0.051529 0.102672 0.0160107)
(0.027748 0.0828408 0.01503)
(0.00589764 0.0642007 0.014115)
(-0.0142058 0.0463863 0.0133611)
(-0.0329303 0.0289402 0.0128363)
(-0.0507395 0.0113782 0.0125734)
(-0.0681281 -0.00675821 0.0125834)
(-0.0855885 -0.0259185 0.0128726)
(-0.103602 -0.0466341 0.0134738)
(-0.122677 -0.0696345 0.0144593)
(-0.143483 -0.0960297 0.0159714)
(-0.167053 -0.127543 0.0182466)
(-0.195063 -0.166811 0.0215958)
(-0.229909 -0.217695 0.0262404)
(-0.274005 -0.285349 0.0319035)
(-0.327348 -0.375357 0.0372161)
(-0.382647 -0.490422 0.0392305)
(-0.419888 -0.62162 0.0336089)
(-0.407182 -0.731093 0.0171125)
(-0.315668 -0.732432 -0.00544805)
(-0.150179 -0.510753 -0.0134135)
(-0.0167479 -0.0982659 0.00498472)
(0.00437824 0.124669 0.00168874)
(0.0519311 0.297673 -0.0131824)
(0.147814 0.411033 -0.0226882)
(0.246768 0.46188 -0.0190597)
(0.323735 0.464963 -0.00670133)
(0.368603 0.441266 0.00702678)
(0.38376 0.406359 0.0172953)
(0.377964 0.370316 0.0233003)
(0.360193 0.336832 0.0257624)
(0.336169 0.306272 0.0261169)
(0.308578 0.277726 0.0254971)
(0.278558 0.250334 0.0244506)
(0.24699 0.223768 0.0231678)
(0.214938 0.1981 0.0217672)
(0.18341 0.173482 0.0204035)
(0.15302 0.14998 0.0191979)
(0.123989 0.127612 0.0181518)
(0.0964026 0.106431 0.0171725)
(0.0704073 0.0865059 0.0161823)
(0.0461791 0.0678061 0.0151881)
(0.0237845 0.0501159 0.0142624)
(0.00309217 0.0330376 0.0134861)
(-0.0162107 0.0160955 0.0129141)
(-0.0345443 -0.00118183 0.0125675)
(-0.0523598 -0.0192252 0.0124468)
(-0.070088 -0.0384561 0.0125448)
(-0.0881185 -0.059362 0.0128684)
(-0.10683 -0.0826428 0.0134598)
(-0.126709 -0.109398 0.0144376)
(-0.148605 -0.141388 0.0160634)
(-0.174149 -0.181406 0.018807)
(-0.206126 -0.233757 0.0232823)
(-0.24811 -0.304604 0.029844)
(-0.302148 -0.401424 0.0377336)
(-0.36336 -0.529754 0.0440145)
(-0.412861 -0.683883 0.0431528)
(-0.416534 -0.827774 0.0294678)
(-0.339865 -0.87041 0.00506797)
(-0.182774 -0.669694 -0.0107458)